         Total DFT energy =     -111.763766471962
@ Step       Energy      Delta E   Gmax     Grms     Xrms     Xmax   Walltime
@ ---- ---------------- -------- -------- -------- -------- -------- --------
@    0    -111.76376647  0.0D+00  0.15732  0.15732  0.00000  0.00000      0.3
         Total DFT energy =     -111.780728015251

 Vector    6  Occ=2.000000D+00  E=-4.123933D-01  Symmetry=e

 Vector    7  Occ=2.000000D+00  E=-3.119878D-01  Symmetry=a1

 Vector    8  Occ=0.000000D+00  E=-8.308285D-02  Symmetry=e

 Vector    9  Occ=0.000000D+00  E=-8.308285D-02  Symmetry=e

 Vector   10  Occ=0.000000D+00  E= 2.644115D-01  Symmetry=a1

 Vector   11  Occ=0.000000D+00  E= 6.228303D-01  Symmetry=e

 Vector   12  Occ=0.000000D+00  E= 6.228303D-01  Symmetry=e

 Vector   13  Occ=0.000000D+00  E= 7.021423D-01  Symmetry=a1

 Vector   14  Occ=0.000000D+00  E= 9.884753D-01  Symmetry=a1

 Vector   15  Occ=0.000000D+00  E= 1.333589D+00  Symmetry=e

 Vector   16  Occ=0.000000D+00  E= 1.333589D+00  Symmetry=e

 Vector   17  Occ=0.000000D+00  E= 1.391878D+00  Symmetry=a1

         Total DFT energy =     -111.780526207091

 Vector    1  Occ=2.000000D+00  E=-1.862022D+01  Symmetry=a1

 Vector    2  Occ=2.000000D+00  E=-9.833826D+00  Symmetry=a1

 Vector    3  Occ=2.000000D+00  E=-1.104653D+00  Symmetry=a1

 Vector    4  Occ=2.000000D+00  E=-4.880267D-01  Symmetry=a1

 Vector    5  Occ=2.000000D+00  E=-4.375212D-01  Symmetry=e

 Vector    6  Occ=2.000000D+00  E=-4.375212D-01  Symmetry=e

 Vector    7  Occ=2.000000D+00  E=-3.050312D-01  Symmetry=a1

 Vector    8  Occ=0.000000D+00  E=-5.487620D-02  Symmetry=e

 Vector    9  Occ=0.000000D+00  E=-5.487620D-02  Symmetry=e

 Vector   10  Occ=0.000000D+00  E= 2.919051D-01  Symmetry=a1

 Vector   11  Occ=0.000000D+00  E= 6.205933D-01  Symmetry=e

 Vector   12  Occ=0.000000D+00  E= 6.205933D-01  Symmetry=e

 Vector   13  Occ=0.000000D+00  E= 7.816355D-01  Symmetry=a1

 Vector   14  Occ=0.000000D+00  E= 1.037944D+00  Symmetry=a1

 Vector   15  Occ=0.000000D+00  E= 1.338980D+00  Symmetry=e

 Vector   16  Occ=0.000000D+00  E= 1.338980D+00  Symmetry=e

 Vector   17  Occ=0.000000D+00  E= 1.356483D+00  Symmetry=a1

@    1    -111.78052621 -1.7D-02  0.08769  0.08769  0.08337  0.14440      0.7
         Total DFT energy =     -111.782926724109

 Vector    1  Occ=2.000000D+00  E=-1.862116D+01  Symmetry=a1

 Vector    2  Occ=2.000000D+00  E=-9.846981D+00  Symmetry=a1

 Vector    3  Occ=2.000000D+00  E=-1.073094D+00  Symmetry=a1

 Vector    4  Occ=2.000000D+00  E=-4.898062D-01  Symmetry=a1

 Vector    5  Occ=2.000000D+00  E=-4.194019D-01  Symmetry=e

 Vector    6  Occ=2.000000D+00  E=-4.194019D-01  Symmetry=e

 Vector    7  Occ=2.000000D+00  E=-3.101404D-01  Symmetry=a1

 Vector    8  Occ=0.000000D+00  E=-7.543111D-02  Symmetry=e

 Vector    9  Occ=0.000000D+00  E=-7.543111D-02  Symmetry=e

 Vector   10  Occ=0.000000D+00  E= 2.738769D-01  Symmetry=a1

 Vector   11  Occ=0.000000D+00  E= 6.223187D-01  Symmetry=e

 Vector   12  Occ=0.000000D+00  E= 6.223187D-01  Symmetry=e

 Vector   13  Occ=0.000000D+00  E= 7.249153D-01  Symmetry=a1

 Vector   14  Occ=0.000000D+00  E= 9.969608D-01  Symmetry=a1

 Vector   15  Occ=0.000000D+00  E= 1.334962D+00  Symmetry=e

 Vector   16  Occ=0.000000D+00  E= 1.334962D+00  Symmetry=e

 Vector   17  Occ=0.000000D+00  E= 1.381701D+00  Symmetry=a1

         Total DFT energy =     -111.783485123518

 Vector    1  Occ=2.000000D+00  E=-1.862099D+01  Symmetry=a1

 Vector    2  Occ=2.000000D+00  E=-9.842844D+00  Symmetry=a1

 Vector    3  Occ=2.000000D+00  E=-1.083140D+00  Symmetry=a1

 Vector    4  Occ=2.000000D+00  E=-4.891926D-01  Symmetry=a1

 Vector    5  Occ=2.000000D+00  E=-4.250605D-01  Symmetry=e

 Vector    6  Occ=2.000000D+00  E=-4.250605D-01  Symmetry=e

 Vector    7  Occ=2.000000D+00  E=-3.085922D-01  Symmetry=a1

 Vector    8  Occ=0.000000D+00  E=-6.912708D-02  Symmetry=e

 Vector    9  Occ=0.000000D+00  E=-6.912708D-02  Symmetry=e

 Vector   10  Occ=0.000000D+00  E= 2.804264D-01  Symmetry=a1

 Vector   11  Occ=0.000000D+00  E= 6.218384D-01  Symmetry=e

 Vector   12  Occ=0.000000D+00  E= 6.218384D-01  Symmetry=e

 Vector   13  Occ=0.000000D+00  E= 7.435241D-01  Symmetry=a1

 Vector   14  Occ=0.000000D+00  E= 1.006363D+00  Symmetry=a1

 Vector   15  Occ=0.000000D+00  E= 1.336146D+00  Symmetry=e

 Vector   16  Occ=0.000000D+00  E= 1.336146D+00  Symmetry=e

 Vector   17  Occ=0.000000D+00  E= 1.373583D+00  Symmetry=a1

@    2    -111.78348512 -3.0D-03  0.00032  0.00032  0.02029  0.03515      1.0
         Total DFT energy =     -111.783485154896

                       DFT Final Molecular Orbital Analysis
                       ------------------------------------

 Vector    1  Occ=2.000000D+00  E=-1.862099D+01  Symmetry=a1

 Vector    2  Occ=2.000000D+00  E=-9.842891D+00  Symmetry=a1

 Vector    3  Occ=2.000000D+00  E=-1.083066D+00  Symmetry=a1

 Vector    4  Occ=2.000000D+00  E=-4.891986D-01  Symmetry=a1

 Vector    5  Occ=2.000000D+00  E=-4.250189D-01  Symmetry=e

 Vector    6  Occ=2.000000D+00  E=-4.250189D-01  Symmetry=e

 Vector    7  Occ=2.000000D+00  E=-3.086103D-01  Symmetry=a1

 Vector    8  Occ=0.000000D+00  E=-6.918115D-02  Symmetry=e

 Vector    9  Occ=0.000000D+00  E=-6.918115D-02  Symmetry=e

 Vector   10  Occ=0.000000D+00  E= 2.803762D-01  Symmetry=a1

 Vector   11  Occ=0.000000D+00  E= 6.218369D-01  Symmetry=e

 Vector   12  Occ=0.000000D+00  E= 6.218369D-01  Symmetry=e

 Vector   13  Occ=0.000000D+00  E= 7.433737D-01  Symmetry=a1

 Vector   14  Occ=0.000000D+00  E= 1.006274D+00  Symmetry=a1

 Vector   15  Occ=0.000000D+00  E= 1.336135D+00  Symmetry=e

 Vector   16  Occ=0.000000D+00  E= 1.336135D+00  Symmetry=e

 Vector   17  Occ=0.000000D+00  E= 1.373645D+00  Symmetry=a1

     Multipole analysis of the density
     ---------------------------------

     L   x y z        total         alpha         beta         nuclear
     -   - - -        -----         -----         ----         -------
     0   0 0 0     -0.000000     -7.000000     -7.000000     14.000000

     1   1 0 0      0.000000      0.000000      0.000000      0.000000
     1   0 1 0      0.000000      0.000000      0.000000      0.000000
     1   0 0 1      0.076084      0.147166      0.147166     -0.218247

     2   2 0 0     -7.383584     -3.691792     -3.691792      0.000000
     2   1 1 0      0.000000      0.000000      0.000000      0.000000
     2   1 0 1      0.000000      0.000000      0.000000      0.000000
     2   0 2 0     -7.383584     -3.691792     -3.691792      0.000000
     2   0 1 1      0.000000      0.000000      0.000000      0.000000

         Total DFT energy =   -111.783485154896
@    3    -111.78348515 -3.1D-08  0.00004  0.00004  0.00007  0.00013      1.2
@    3    -111.78348515 -3.1D-08  0.00004  0.00004  0.00007  0.00013      1.2

 Output coordinates in angstroms (scale by  1.889725989 to convert to a.u.)

  No.       Tag          Charge          X              Y              Z
 ---- ---------------- ---------- -------------- -------------- --------------
    1 C                    6.0000     0.00000000     0.00000000    -0.66978572
    2 O                    8.0000     0.00000000     0.00000000     0.48790287

 Total times  cpu:        1.0s     wall:        1.4s
