         Total DFT energy =     -111.763766471962

 Vector    6  Occ=2.000000D+00  E=-3.898768D-01  Symmetry=e

 Vector    7  Occ=2.000000D+00  E=-3.172752D-01  Symmetry=a1

 Vector    8  Occ=0.000000D+00  E=-1.064059D-01  Symmetry=e

 Vector    9  Occ=0.000000D+00  E=-1.064059D-01  Symmetry=e

 Vector   10  Occ=0.000000D+00  E= 2.226851D-01  Symmetry=a1

 Vector   11  Occ=0.000000D+00  E= 6.237580D-01  Symmetry=e

 Vector   12  Occ=0.000000D+00  E= 6.237580D-01  Symmetry=e

 Vector   13  Occ=0.000000D+00  E= 6.414182D-01  Symmetry=a1

 Vector   14  Occ=0.000000D+00  E= 9.763533D-01  Symmetry=a1

 Vector   15  Occ=0.000000D+00  E= 1.329940D+00  Symmetry=e

 Vector   16  Occ=0.000000D+00  E= 1.329940D+00  Symmetry=e

 Vector   17  Occ=0.000000D+00  E= 1.423559D+00  Symmetry=a1

@ Step       Energy      Delta E   Gmax     Grms     Xrms     Xmax   Walltime
@ ---- ---------------- -------- -------- -------- -------- -------- --------
@    0    -111.76376647  0.0D+00  0.15732  0.15732  0.00000  0.00000      0.3
         Total DFT energy =     -111.779454483458

 Vector    1  Occ=2.000000D+00  E=-1.862004D+01  Symmetry=a1

 Vector    2  Occ=2.000000D+00  E=-9.832366D+00  Symmetry=a1

 Vector    3  Occ=2.000000D+00  E=-1.108088D+00  Symmetry=a1

 Vector    4  Occ=2.000000D+00  E=-4.878564D-01  Symmetry=a1

 Vector    5  Occ=2.000000D+00  E=-4.395623D-01  Symmetry=e

 Vector    6  Occ=2.000000D+00  E=-4.395623D-01  Symmetry=e

 Vector    7  Occ=2.000000D+00  E=-3.044306D-01  Symmetry=a1

 Vector    8  Occ=0.000000D+00  E=-5.249705D-02  Symmetry=e

 Vector    9  Occ=0.000000D+00  E=-5.249705D-02  Symmetry=e

 Vector   10  Occ=0.000000D+00  E= 2.934549D-01  Symmetry=a1

 Vector   11  Occ=0.000000D+00  E= 6.203676D-01  Symmetry=e

 Vector   12  Occ=0.000000D+00  E= 6.203676D-01  Symmetry=e

 Vector   13  Occ=0.000000D+00  E= 7.871349D-01  Symmetry=a1

 Vector   14  Occ=0.000000D+00  E= 1.044827D+00  Symmetry=a1

 Vector   15  Occ=0.000000D+00  E= 1.339472D+00  Symmetry=e

 Vector   16  Occ=0.000000D+00  E= 1.339472D+00  Symmetry=e

 Vector   17  Occ=0.000000D+00  E= 1.353833D+00  Symmetry=a1

         Total DFT energy =     -111.783462238077

 Vector    1  Occ=2.000000D+00  E=-1.862094D+01  Symmetry=a1

 Vector    2  Occ=2.000000D+00  E=-9.842062D+00  Symmetry=a1

 Vector    3  Occ=2.000000D+00  E=-1.085026D+00  Symmetry=a1

 Vector    4  Occ=2.000000D+00  E=-4.890828D-01  Symmetry=a1

 Vector    5  Occ=2.000000D+00  E=-4.261332D-01  Symmetry=e

 Vector    6  Occ=2.000000D+00  E=-4.261332D-01  Symmetry=e

 Vector    7  Occ=2.000000D+00  E=-3.082935D-01  Symmetry=a1

 Vector    8  Occ=0.000000D+00  E=-6.792001D-02  Symmetry=e

 Vector    9  Occ=0.000000D+00  E=-6.792001D-02  Symmetry=e

 Vector   10  Occ=0.000000D+00  E= 2.815660D-01  Symmetry=a1

 Vector   11  Occ=0.000000D+00  E= 6.217409D-01  Symmetry=e

 Vector   12  Occ=0.000000D+00  E= 6.217409D-01  Symmetry=e

 Vector   13  Occ=0.000000D+00  E= 7.470129D-01  Symmetry=a1

 Vector   14  Occ=0.000000D+00  E= 1.008450D+00  Symmetry=a1

 Vector   15  Occ=0.000000D+00  E= 1.336378D+00  Symmetry=e

 Vector   16  Occ=0.000000D+00  E= 1.336378D+00  Symmetry=e

 Vector   17  Occ=0.000000D+00  E= 1.372062D+00  Symmetry=a1

@    1    -111.78346224 -2.0D-02  0.00711  0.00711  0.06486  0.11234      0.7
         Total DFT energy =     -111.783479512529

 Vector    1  Occ=2.000000D+00  E=-1.862101D+01  Symmetry=a1

 Vector    2  Occ=2.000000D+00  E=-9.843289D+00  Symmetry=a1

 Vector    3  Occ=2.000000D+00  E=-1.082065D+00  Symmetry=a1

 Vector    4  Occ=2.000000D+00  E=-4.892561D-01  Symmetry=a1

 Vector    5  Occ=2.000000D+00  E=-4.244505D-01  Symmetry=e

 Vector    6  Occ=2.000000D+00  E=-4.244505D-01  Symmetry=e

 Vector    7  Occ=2.000000D+00  E=-3.087613D-01  Symmetry=a1

 Vector    8  Occ=0.000000D+00  E=-6.981191D-02  Symmetry=e

 Vector    9  Occ=0.000000D+00  E=-6.981191D-02  Symmetry=e

 Vector   10  Occ=0.000000D+00  E= 2.797642D-01  Symmetry=a1

 Vector   11  Occ=0.000000D+00  E= 6.218929D-01  Symmetry=e

 Vector   12  Occ=0.000000D+00  E= 6.218929D-01  Symmetry=e

 Vector   13  Occ=0.000000D+00  E= 7.415309D-01  Symmetry=a1

 Vector   14  Occ=0.000000D+00  E= 1.005222D+00  Symmetry=a1

 Vector   15  Occ=0.000000D+00  E= 1.336015D+00  Symmetry=e

 Vector   16  Occ=0.000000D+00  E= 1.336015D+00  Symmetry=e

 Vector   17  Occ=0.000000D+00  E= 1.374451D+00  Symmetry=a1

         Total DFT energy =     -111.783485169803

                       DFT Final Molecular Orbital Analysis
                       ------------------------------------

 Vector    1  Occ=2.000000D+00  E=-1.862099D+01  Symmetry=a1

 Vector    2  Occ=2.000000D+00  E=-9.842881D+00  Symmetry=a1

 Vector    3  Occ=2.000000D+00  E=-1.083051D+00  Symmetry=a1

 Vector    4  Occ=2.000000D+00  E=-4.891978D-01  Symmetry=a1

 Vector    5  Occ=2.000000D+00  E=-4.250100D-01  Symmetry=e

 Vector    6  Occ=2.000000D+00  E=-4.250100D-01  Symmetry=e

 Vector    7  Occ=2.000000D+00  E=-3.086062D-01  Symmetry=a1

 Vector    8  Occ=0.000000D+00  E=-6.918385D-02  Symmetry=e

 Vector    9  Occ=0.000000D+00  E=-6.918385D-02  Symmetry=e

 Vector   10  Occ=0.000000D+00  E= 2.803719D-01  Symmetry=a1

 Vector   11  Occ=0.000000D+00  E= 6.218429D-01  Symmetry=e

 Vector   12  Occ=0.000000D+00  E= 6.218429D-01  Symmetry=e

 Vector   13  Occ=0.000000D+00  E= 7.433592D-01  Symmetry=a1

 Vector   14  Occ=0.000000D+00  E= 1.006267D+00  Symmetry=a1

 Vector   15  Occ=0.000000D+00  E= 1.336135D+00  Symmetry=e

 Vector   16  Occ=0.000000D+00  E= 1.336135D+00  Symmetry=e

 Vector   17  Occ=0.000000D+00  E= 1.373655D+00  Symmetry=a1

     Multipole analysis of the density
     ---------------------------------

     L   x y z        total         alpha         beta         nuclear
     -   - - -        -----         -----         ----         -------
     0   0 0 0     -0.000000     -7.000000     -7.000000     14.000000

     1   1 0 0      0.000000      0.000000      0.000000      0.000000
     1   0 1 0      0.000000      0.000000      0.000000      0.000000
     1   0 0 1      0.076003      0.147107      0.147107     -0.218210

     2   2 0 0     -7.383621     -3.691810     -3.691810      0.000000
     2   1 1 0     -0.000000     -0.000000     -0.000000      0.000000
     2   1 0 1      0.000000      0.000000      0.000000      0.000000
     2   0 2 0     -7.383621     -3.691810     -3.691810      0.000000
     2   0 1 1      0.000000      0.000000      0.000000      0.000000

@    2    -111.78348517 -2.3D-05  0.00000  0.00000  0.00187  0.00324      1.0
@    2    -111.78348517 -2.3D-05  0.00000  0.00000  0.00187  0.00324      1.0

 Output coordinates in angstroms (scale by  1.889725989 to convert to a.u.)

  No.       Tag          Charge          X              Y              Z
 ---- ---------------- ---------- -------------- -------------- --------------
    1 C                    6.0000     0.00000000     0.00000000    -0.66979556
    2 O                    8.0000     0.00000000     0.00000000     0.48791270

 Total times  cpu:        0.7s     wall:        1.0s
